TITLE = "VELOCITY & PRESSURE PROFILE"
VARIABLES = "X" "Y" "U" "V" "P" 
ZONE, I = 129, J = 129
0.0 0.0 0.0 0.0 0.01533450237398986 
0.0 0.0078125 0.0 0.0 0.015330505186968966 
0.0 0.015625 0.0 0.0 0.01533155627597502 
0.0 0.0234375 0.0 0.0 0.01535315369229772 
0.0 0.03125 0.0 0.0 0.015397707846262777 
0.0 0.0390625 0.0 0.0 0.015464057528205209 
0.0 0.046875 0.0 0.0 0.01554961538924585 
0.0 0.0546875 0.0 0.0 0.015651390422195086 
0.0 0.0625 0.0 0.0 0.015766415663334057 
0.0 0.0703125 0.0 0.0 0.01589191081252672 
0.0 0.078125 0.0 0.0 0.01602533018970019 
0.0 0.0859375 0.0 0.0 0.016164362606469973 
0.0 0.09375 0.0 0.0 0.01630691242424919 
0.0 0.1015625 0.0 0.0 0.016451074641330173 
0.0 0.109375 0.0 0.0 0.016595109564028217 
0.0 0.1171875 0.0 0.0 0.016737419343776438 
0.0 0.125 0.0 0.0 0.016876527180196395 
0.0 0.1328125 0.0 0.0 0.017011059324363233 
0.0 0.140625 0.0 0.0 0.017139729729402357 
0.0 0.1484375 0.0 0.0 0.01726132708606239 
0.0 0.15625 0.0 0.0 0.017374703954252283 
0.0 0.1640625 0.0 0.0 0.01747876771222557 
0.0 0.171875 0.0 0.0 0.01757247307109249 
0.0 0.1796875 0.0 0.0 0.017654815932998773 
0.0 0.1875 0.0 0.0 0.01772482840162749 
0.0 0.1953125 0.0 0.0 0.01778157478147359 
0.0 0.203125 0.0 0.0 0.01782414842682297 
0.0 0.2109375 0.0 0.0 0.017851669322435267 
0.0 0.21875 0.0 0.0 0.017863282295788898 
0.0 0.2265625 0.0 0.0 0.01785815577573366 
0.0 0.234375 0.0 0.0 0.017835481024876452 
0.0 0.2421875 0.0 0.0 0.017794471783354887 
0.0 0.25 0.0 0.0 0.01773436427015459 
0.0 0.2578125 0.0 0.0 0.017654417495084333 
0.0 0.265625 0.0 0.0 0.017553913840185266 
0.0 0.2734375 0.0 0.0 0.017432159873928425 
0.0 0.28125 0.0 0.0 0.017288487365228644 
0.0 0.2890625 0.0 0.0 0.01712225446722563 
0.0 0.296875 0.0 0.0 0.016932847043085328 
0.0 0.3046875 0.0 0.0 0.016719680107866515 
0.0 0.3125 0.0 0.0 0.016482199361873638 
0.0 0.3203125 0.0 0.0 0.016219882791957803 
0.0 0.328125 0.0 0.0 0.015932242318002325 
0.0 0.3359375 0.0 0.0 0.015618825462397245 
0.0 0.34375 0.0 0.0 0.015279217020719403 
0.0 0.3515625 0.0 0.0 0.014913040712135922 
0.0 0.359375 0.0 0.0 0.014519960788276704 
0.0 0.3671875 0.0 0.0 0.014099683579509324 
0.0 0.375 0.0 0.0 0.01365195895772487 
0.0 0.3828125 0.0 0.0 0.013176581694929745 
0.0 0.390625 0.0 0.0 0.012673392697155228 
0.0 0.3984375 0.0 0.0 0.01214228009345904 
0.0 0.40625 0.0 0.0 0.011583180160112352 
0.0 0.4140625 0.0 0.0 0.010996078060448453 
0.0 0.421875 0.0 0.0 0.010381008381298492 
0.0 0.4296875 0.0 0.0 0.009738055447453558 
0.0 0.4375 0.0 0.0 0.009067353396163892 
0.0 0.4453125 0.0 0.0 0.008369085994304006 
0.0 0.453125 0.0 0.0 0.007643486181478998 
0.0 0.4609375 0.0 0.0 0.006890835322999177 
0.0 0.46875 0.0 0.0 0.006111462157276783 
0.0 0.4765625 0.0 0.0 0.005305741422762158 
0.0 0.484375 0.0 0.0 0.004474092149990731 
0.0 0.4921875 0.0 0.0 0.0036169756046006453 
0.0 0.5 0.0 0.0 0.0027348928672364754 
0.0 0.5078125 0.0 0.0 0.0018283820359978355 
0.0 0.515625 0.0 0.0 0.0008980150364279985 
0.0 0.5234375 0.0 0.0 -5.560597714400825e-05 
0.0 0.53125 0.0 0.0 -0.0010318526469258993 
0.0 0.5390625 0.0 0.0 -0.0020300748843036483 
0.0 0.546875 0.0 0.0 -0.0030496058140806644 
0.0 0.5546875 0.0 0.0 -0.004089767219422187 
0.0 0.5625 0.0 0.0 -0.005149875522902439 
0.0 0.5703125 0.0 0.0 -0.006229248347107813 
0.0 0.578125 0.0 0.0 -0.007327211708432991 
0.0 0.5859375 0.0 0.0 -0.008443107910450255 
0.0 0.59375 0.0 0.0 -0.009576304219051698 
0.0 0.6015625 0.0 0.0 -0.010726202421077292 
0.0 0.609375 0.0 0.0 -0.011892249392091247 
0.0 0.6171875 0.0 0.0 -0.01307394882824784 
0.0 0.625 0.0 0.0 -0.014270874332873652 
0.0 0.6328125 0.0 0.0 -0.01548268409179 
0.0 0.640625 0.0 0.0 -0.01670913742408986 
0.0 0.6484375 0.0 0.0 -0.01795011355899499 
0.0 0.65625 0.0 0.0 -0.019205633066906733 
0.0 0.6640625 0.0 0.0 -0.020475882466718907 
0.0 0.671875 0.0 0.0 -0.021761242645448924 
0.0 0.6796875 0.0 0.0 -0.023062321864683502 
0.0 0.6875 0.0 0.0 -0.02437999429674155 
0.0 0.6953125 0.0 0.0 -0.02571544523874992 
0.0 0.703125 0.0 0.0 -0.027070224403763082 
0.0 0.7109375 0.0 0.0 -0.028446308995794867 
0.0 0.71875 0.0 0.0 -0.02984617865452113 
0.0 0.7265625 0.0 0.0 -0.031272904824082334 
0.0 0.734375 0.0 0.0 -0.0327302576832708 
0.0 0.7421875 0.0 0.0 -0.03422283450374118 
0.0 0.75 0.0 0.0 -0.035756214221961846 
0.0 0.7578125 0.0 0.0 -0.03733714417789387 
0.0 0.765625 0.0 0.0 -0.03897376646879699 
0.0 0.7734375 0.0 0.0 -0.04067589330071178 
0.0 0.78125 0.0 0.0 -0.042455343247815566 
0.0 0.7890625 0.0 0.0 -0.044326353670148075 
0.0 0.796875 0.0 0.0 -0.04630608900730472 
0.0 0.8046875 0.0 0.0 -0.04841527071565291 
0.0 0.8125 0.0 0.0 -0.05067896292025263 
0.0 0.8203125 0.0 0.0 -0.05312755941040318 
0.0 0.828125 0.0 0.0 -0.05579803393366163 
0.0 0.8359375 0.0 0.0 -0.058735539164876 
0.0 0.84375 0.0 0.0 -0.06199547388347093 
0.0 0.8515625 0.0 0.0 -0.06564618857952974 
0.0 0.859375 0.0 0.0 -0.06977257634486386 
0.0 0.8671875 0.0 0.0 -0.07448091413728099 
0.0 0.875 0.0 0.0 -0.07990550598539185 
0.0 0.8828125 0.0 0.0 -0.08621798108620368 
0.0 0.890625 0.0 0.0 -0.09364060027915982 
0.0 0.8984375 0.0 0.0 -0.10246578144461396 
0.0 0.90625 0.0 0.0 -0.11308557326366046 
0.0 0.9140625 0.0 0.0 -0.12603760398323238 
0.0 0.921875 0.0 0.0 -0.14207940494325616 
0.0 0.9296875 0.0 0.0 -0.1623138008681483 
0.0 0.9375 0.0 0.0 -0.1884107254550556 
0.0 0.9453125 0.0 0.0 -0.22302040206514076 
0.0 0.953125 0.0 0.0 -0.27058466532498887 
0.0 0.9609375 0.0 0.0 -0.33900808330968385 
0.0 0.96875 0.0 0.0 -0.44321121863132995 
0.0 0.9765625 0.0 0.0 -0.6126223176995562 
0.0 0.984375 0.0 0.0 -0.9052134378689918 
0.0 0.9921875 0.0 0.0 -1.4248394698450784 
0.0 1.0 0.5 0.0 -1.7577839829923267 
0.0078125 0.0 0.0 0.0 0.015338249540599041 
0.0078125 0.0078125 6.6540586521036284e-06 -6.7290058809874435e-06 0.015334291890432462 
0.0078125 0.015625 1.1090597442687218e-05 -2.183261932591658e-05 0.015335672764649862 
0.0078125 0.0234375 1.1957698246652728e-05 -3.9496873258621274e-05 0.015357111557753433 
0.0078125 0.03125 1.015892367749096e-05 -5.5182391635353204e-05 0.015399943259037326 
0.0078125 0.0390625 6.634375944020711e-06 -6.561719260457841e-05 0.015463074083402003 
0.0078125 0.046875 2.042769017227722e-06 -6.856442354949852e-05 0.015544248897641548 
0.0078125 0.0546875 -3.191941982719413e-06 -6.254188620305972e-05 0.015640805594935293 
0.0078125 0.0625 -8.800825873121613e-06 -4.659491373010679e-05 0.015750040172212446 
0.0078125 0.0703125 -1.4612146453202017e-05 -2.0132379169166567e-05 0.015869368186048376 
0.0078125 0.078125 -2.051502912512444e-05 1.7187062701905127e-05 0.015996385939442158 
0.0078125 0.0859375 -2.6437280918296564e-05 6.55329918358202e-05 0.016128884115293195 
0.0078125 0.09375 -3.233173854545301e-05 0.00012495674729548907 0.016264839891692577 
0.0078125 0.1015625 -3.8167688578839674e-05 0.00019542831580406935 0.016402400235796515 
0.0078125 0.109375 -4.392534724858881e-05 0.00027686188078249245 0.016539862501029883 
0.0078125 0.1171875 -4.9592230137879926e-05 0.00036913357560929455 0.01667565521150151 
0.0078125 0.125 -5.516071952899502e-05 0.000472093823334576 0.016808320311939108 
0.0078125 0.1328125 -6.0626409295869975e-05 0.0005855758802919951 0.016936497365879627 
0.0078125 0.140625 -6.598696558018782e-05 0.0007094016948542225 0.017058909795607848 
0.0078125 0.1484375 -7.124133603035475e-05 0.0008433858540258544 0.017174353074174566 
0.0078125 0.15625 -7.638919835297681e-05 0.0009873381613153388 0.01728168470168831 
0.0078125 0.1640625 -8.143057538075975e-05 0.0011410652321013522 0.017379815773117847 
0.0078125 0.171875 -8.636556732011396e-05 0.0013043713835610338 0.017467703946123788 
0.0078125 0.1796875 -9.119416725422038e-05 0.0014770590196053741 0.01754434763086038 
0.0078125 0.1875 -9.591613629074251e-05 0.0016589286569402343 0.017608781241892267 
0.0078125 0.1953125 -0.00010053092175708594 0.001849778699517931 0.01766007137157565 
0.0078125 0.203125 -0.0001050376066834739 0.002049405040652479 0.017697313762594105 
0.0078125 0.2109375 -0.00010943488219116124 0.0022576005517830795 0.017719630973978252 
0.0078125 0.21875 -0.00011372103678499584 0.002474154502094961 0.017726170649581527 
0.0078125 0.2265625 -0.00011789395824374904 0.00269885194240761 0.01771610431061829 
0.0078125 0.234375 -0.0001219511450147237 0.002931473078828052 0.017688626604621074 
0.0078125 0.2421875 -0.0001258897248918834 0.00317179265586099 0.017642954952224302 
0.0078125 0.25 -0.0001297064793863842 0.0034195793644045316 0.017578329540735044 
0.0078125 0.2578125 -0.0001333978726529287 0.003674595286929693 0.01749401361970465 
0.0078125 0.265625 -0.00013696008416288325 0.0039365953898430495 0.017389294058852988 
0.0078125 0.2734375 -0.00014038904454994337 0.004205327071342999 0.017263482132884533 
0.0078125 0.28125 -0.00014368047422106092 0.004480529771837006 0.017115914501119718 
0.0078125 0.2890625 -0.00014682992444234035 0.004761934653067602 0.016945954352573282 
0.0078125 0.296875 -0.00014983282068986418 0.005049264351408009 0.016752992689255824 
0.0078125 0.3046875 -0.00015268450810867264 0.005342232810266055 0.01653644972215185 
0.0078125 0.3125 -0.00015538029895663423 0.005640545196127141 0.016295776355620344 
0.0078125 0.3203125 -0.00015791552192917212 0.005943897902436032 0.016030455736946232 
0.0078125 0.328125 -0.0001602855732698859 0.006251978645235707 0.015740004848504123 
0.0078125 0.3359375 -0.000162485969574233 0.006564466654229639 0.015423976120535567 
0.0078125 0.34375 -0.00016451240219108766 0.006881032962698146 0.015081959042934391 
0.0078125 0.3515625 -0.00016636079312217563 0.007201340799470527 0.014713581754722807 
0.0078125 0.359375 -0.00016802735231370445 0.007525046085927544 0.01431851259011996 
0.0078125 0.3671875 -0.00016950863622935597 0.007851798040781423 0.013896461560284793 
0.0078125 0.375 -0.00017080160759034492 0.008181239895153215 0.01344718174998312 
0.0078125 0.3828125 -0.00017190369616754207 0.008513009720243337 0.01297047060860649 
0.0078125 0.390625 -0.00017281286051368835 0.008846741369675039 0.012466171115175787 
0.0078125 0.3984375 -0.00017352765053142257 0.009182065538389416 0.011934172797209592 
0.0078125 0.40625 -0.0001740472707861339 0.00951861093979317 0.011374412583635966 
0.0078125 0.4140625 -0.00017437164449241125 0.009856005602716758 0.01078687547228264 
0.0078125 0.421875 -0.00017450147813007175 0.010193878289643403 0.01017159499289566 
0.0078125 0.4296875 -0.0001744383266814027 0.010531860037632432 0.009528653447108359 
0.0078125 0.4375 -0.00017418465952627707 0.010869585823399424 0.008858181907302053 
0.0078125 0.4453125 -0.00017374392708745392 0.011206696354148735 0.008160359956855533 
0.0078125 0.453125 -0.00017312062838576304 0.011542839986000706 0.00743541515485241 
0.0078125 0.4609375 -0.00017232037974531793 0.011877674772238729 0.0066836222088793714 
0.0078125 0.46875 -0.0001713499849839326 0.012210870644144903 0.005905301840072561 
0.0078125 0.4765625 -0.00017021750753511196 0.012542111727924653 0.0051008193250137255 
0.0078125 0.484375 -0.00016893234507721534 0.012871098802170914 0.004270582699394422 
0.0078125 0.4921875 -0.00016750530739476804 0.01319755190152122 0.0034150406084975274 
0.0078125 0.5 -0.00016594869836881662 0.013521213073654042 0.002534679789420752 
0.0078125 0.5078125 -0.00016427640319039875 0.01384184929859599 0.001630022169505 
0.0078125 0.515625 -0.00016250398211690355 0.014159255581516527 0.0007016215645337616 
0.0078125 0.5234375 -0.00016064877234891307 0.014473258232824195 -0.000249940041176195 
0.0078125 0.53125 -0.00015872999989939048 0.014783718352507629 -0.0012240566528031061 
0.0078125 0.5390625 -0.0001567689036627662 0.015090535539353148 -0.0022201028841520097 
0.0078125 0.546875 -0.0001547888742743644 0.015393651849993792 -0.003237439064880631 
0.0078125 0.5546875 -0.0001528156107875676 0.01569305603778885 -0.004275416868069671 
0.0078125 0.5625 -0.0001508772986950481 0.015988788107395523 -0.005333385497164116 
0.0078125 0.5703125 -0.00014900481339074625 0.016280944227687118 -0.006410698479916818 
0.0078125 0.578125 -0.00014723195382212176 0.016569682053522147 -0.007506721127768875 
0.0078125 0.5859375 -0.00014559571183063688 0.01685522651592257 -0.008620838732544926 
0.0078125 0.59375 -0.000144136583538259 0.01713787615064456 -0.009752465588952533 
0.0078125 0.6015625 -0.00014289893012759753 0.017418010047116888 -0.010901054951784568 
0.0078125 0.609375 -0.0001419313965058879 0.01769609551350465 -0.012066110061689714 
0.0078125 0.6171875 -0.00014128739766596318 0.017972696569493244 -0.013247196403810477 
0.0078125 0.625 -0.00014102568409427913 0.018248483396586978 -0.014443955400590843 
0.0078125 0.6328125 -0.00014121099936887223 0.01852424289664213 -0.015656119784958435 
0.0078125 0.640625 -0.0001419148451909375 0.01880089053343753 -0.016883530954505253 
0.0078125 0.6484375 -0.00014321637156831303 0.01907948365984516 -0.018126158673196988 
0.0078125 0.65625 -0.00014520341280135142 0.019361236565223358 -0.01938412356694231 
0.0078125 0.6640625 -0.0001479736934191034 0.019647537514780503 -0.020657722956011208 
0.0078125 0.671875 -0.0001516362324161668 0.01993996809578643 -0.021947460684459054 
0.0078125 0.6796875 -0.00015631297923097057 0.02024032523581399 -0.023254081748927437 
0.0078125 0.6875 -0.00016214072112598582 0.020550646317144178 -0.024578612702118575 
0.0078125 0.6953125 -0.00016927330930068443 0.02087323788093537 -0.025922409016999767 
0.0078125 0.703125 -0.0001778842606193074 0.02121070849713602 -0.0272872108554078 
0.0078125 0.7109375 -0.00018816980384821417 0.021566006474514236 -0.028675209000704117 
0.0078125 0.71875 -0.00020035245456047056 0.021942463203638005 -0.030089123103302442 
0.0078125 0.7265625 -0.00021468522245604403 0.02234384306949927 -0.031532294869505186 
0.0078125 0.734375 -0.0002314565802468672 0.022774401046807977 -0.03300879942339289 
0.0078125 0.7421875 -0.0002509963565190602 0.023238949309235365 -0.034523578821948966 
0.0078125 0.75 -0.0002736827589687219 0.023742934456761226 -0.03608260264990664 
0.0078125 0.7578125 -0.00029995079312397616 0.024292527309957845 -0.03769306182345752 
0.0078125 0.765625 -0.00033030242078267637 0.024894727659903686 -0.03936360327361062 
0.0078125 0.7734375 -0.00036531890998655887 0.02555748692945973 -0.04110461517481933 
0.0078125 0.78125 -0.00040567597601699453 0.026289852439910128 -0.04292857499201844 
0.0078125 0.7890625 -0.00045216251745123386 0.027102137947457847 -0.04485047606483847 
0.0078125 0.796875 -0.0005057040373904285 0.028006126401737674 -0.046888353053755716 
0.0078125 0.8046875 -0.000567392244034454 0.029015312602447402 -0.04906393280564649 
0.0078125 0.8125 -0.0006385229015046635 0.030145195758392217 -0.051403445739059354 
0.0078125 0.8203125 -0.0007206448342482502 0.031413635124232994 -0.05393864471729797 
0.0078125 0.828125 -0.0008156242044921894 0.032841286245058735 -0.05670809509812744 
0.0078125 0.8359375 -0.0009257299825090303 0.03445214136838537 -0.05975882355767778 
0.0078125 0.84375 -0.001053749233410671 0.03627420599819574 -0.06314844800855257 
0.0078125 0.8515625 -0.0012031449709189086 0.038340355401340384 -0.0669479621948875 
0.0078125 0.859375 -0.0013782757394367453 0.04068943164561738 -0.07124542556475941 
0.0078125 0.8671875 -0.0015847062429508519 0.043367665660680975 -0.07615092692253447 
0.0078125 0.875 -0.0018296547860988548 0.046430543070561596 -0.08180337454510965 
0.0078125 0.8828125 -0.0021226505656616644 0.04994528168920481 -0.08837995956511202 
0.0078125 0.890625 -0.0024765202424216898 0.05399415867819177 -0.09610962051269131 
0.0078125 0.8984375 -0.0029089042089841307 0.058679023438403546 -0.10529264470301777 
0.0078125 0.90625 -0.003444647741814493 0.0641274625546116 -0.11632993757859554 
0.0078125 0.9140625 -0.004119675234396778 0.07050123305177296 -0.12976797559699904 
0.0078125 0.921875 -0.004987432213203346 0.07800767462859996 -0.14637002128462165 
0.0078125 0.9296875 -0.006129802195449001 0.08691456660626981 -0.1672328132313945 
0.0078125 0.9375 -0.007675581759529317 0.0975673645685586 -0.19398469157959747 
0.0078125 0.9453125 -0.009830025832752151 0.11040192038625753 -0.22913403215462888 
0.0078125 0.953125 -0.012911644371282453 0.12592624465530164 -0.2767007782502889 
0.0078125 0.9609375 -0.017342682001688623 0.14458260782003857 -0.34337964884258043 
0.0078125 0.96875 -0.023289128613696565 0.1662086958279149 -0.44064592717769735 
0.0078125 0.9765625 -0.028492149528458813 0.1882411742958074 -0.5881829339727106 
0.0078125 0.984375 -0.017757318393131147 0.20020398936770817 -0.8172017714295354 
0.0078125 0.9921875 0.08315391922934275 0.16832045176057642 -1.161479554199589 
0.0078125 1.0 0.5857316933786111 0.0 -1.366177883304203 
0.015625 0.0 0.0 0.0 0.015337110775406674 
0.015625 0.0078125 2.1438991118161792e-05 -1.12692254455488e-05 0.015332904033951508 
0.015625 0.015625 3.217853011102592e-05 -3.276928101552484e-05 0.015334315874951772 
0.015625 0.0234375 3.276224609268251e-05 -5.582880350394995e-05 0.015355244911861276 
0.015625 0.03125 2.5535090637992522e-05 -7.386966725029639e-05 0.01539514437019041 
0.015625 0.0390625 1.2799856051187304e-05 -8.188151180573372e-05 0.015452798128478454 
0.015625 0.046875 -3.6539070322687885e-06 -7.618460174564989e-05 0.01552637242578682 
0.015625 0.0546875 -2.254422101974777e-05 -5.416350550161004e-05 0.015613711643562029 
0.015625 0.0625 -4.298016927449637e-05 -1.4015533208889589e-05 0.01571255748184048 
0.015625 0.0703125 -6.434853433738196e-05 4.545838749446118e-05 0.01582067995210539 
0.015625 0.078125 -8.622783360185576e-05 0.00012501586938936158 0.015935945596525114 
0.015625 0.0859375 -0.00010832809667710668 0.0002250943318748458 0.016056347241331703 
0.015625 0.09375 -0.00013044974671604608 0.00034590005397070356 0.016180011946576336 
0.015625 0.1015625 -0.0001524556321201296 0.00048747300421677503 0.016305197362792675 
0.015625 0.109375 -0.00017425189635701273 0.0006497338403980988 0.016430282434671407 
0.015625 0.1171875 -0.00019577477219517785 0.0008325178961915394 0.016553755799855498 
0.015625 0.125 -0.00021698137443195033 0.001035599688406395 0.016674203715585423 
0.015625 0.1328125 -0.00023784322043529567 0.0012587105094213637 0.016790298475845875 
0.015625 0.140625 -0.00025834163399343776 0.0015015509617104746 0.016900787787814127 
0.015625 0.1484375 -0.00027846446485746466 0.0017637997816224726 0.01700448529962168 
0.015625 0.15625 -0.0002982037376421257 0.0020451199338919254 0.017100262319468876 
0.015625 0.1640625 -0.0003175539638180614 0.002345162695684844 0.017187040685806898 
0.015625 0.171875 -0.00033651093110385763 0.002663570259562713 0.017263786708938092 
0.015625 0.1796875 -0.0003550708393649614 0.0029999772474564785 0.017329506088206117 
0.015625 0.1875 -0.0003732296898776228 0.0033540114276843537 0.017383239705617483 
0.015625 0.1953125 -0.0003909828611377338 0.0037252938537343933 0.017424060200239854 
0.015625 0.203125 -0.0004083248229496128 0.004113438589549969 0.017451069234568885 
0.015625 0.2109375 -0.00042524895373895227 0.0045180521461331904 0.017463395372238344 
0.015625 0.21875 -0.0004417474355185168 0.0049387327246468195 0.017460192494839297 
0.015625 0.2265625 -0.0004578112077949111 0.0053750693391310354 0.017440638693603527 
0.015625 0.234375 -0.00047342996669577674 0.005826640875484694 0.017403935578990677 
0.015625 0.2421875 -0.0004885921992448687 0.006293015131049025 0.01734930795767299 
0.015625 0.25 -0.0005032852453872442 0.00677374786991377 0.017276003832013574 
0.015625 0.2578125 -0.0005174953823309189 0.007268381922155953 0.01718329468191799 
0.015625 0.265625 -0.0005312079272132597 0.007776446350035116 0.01707047599296856 
0.015625 0.2734375 -0.0005444073551564824 0.008297455700268418 0.01693686799810174 
0.015625 0.28125 -0.0005570774305464058 0.008830909358566574 0.016781816602842316 
0.015625 0.2890625 -0.0005692013499253637 0.00937629102037935 0.01660469446634161 
0.015625 0.296875 -0.0005807618952880437 0.009933068290091272 0.016404902212255018 
0.015625 0.3046875 -0.0005917415968485324 0.010500692419582711 0.016181869744904584 
0.015625 0.3125 -0.0006021229045384461 0.011078598196022891 0.015935057647267686 
0.015625 0.3203125 -0.0006118883676227267 0.011666203987909258 0.01566395863816867 
0.015625 0.328125 -0.0006210208218991756 0.012262911957652618 0.015368099066676461 
0.015625 0.3359375 -0.0006295035839937691 0.012868108448385679 0.015047040422172999 
0.015625 0.34375 -0.0006373206522868942 0.01348116455211235 0.014700380838893426 
0.015625 0.3515625 -0.0006444569140144655 0.01410143686579501 0.014327756573985245 
0.015625 0.359375 -0.0006508983580893895 0.014728268441482532 0.013928843438320076 
0.015625 0.3671875 -0.0006566322931887836 0.015360989936106535 0.01350335815944502 
0.015625 0.375 -0.0006616475706557794 0.01599892096611448 0.013051059656204192 
0.015625 0.3828125 -0.0006659348117759433 0.016641371671669264 0.01257175020471287 
0.015625 0.390625 -0.000669486639011343 0.017287644494732395 0.012065276475543051 
0.015625 0.3984375 -0.0006722979108138384 0.017937036174972717 0.011531530422191214 
0.015625 0.40625 -0.000674365959696772 0.018588839967119106 0.01097045000115471 
0.015625 0.4140625 -0.0006756908333244965 0.019242348083121294 0.010382019704245854 
0.015625 0.421875 -0.000676275538485615 0.019896854362318896 0.009766270884122566 
0.015625 0.4296875 -0.0006761262879520843 0.020551657172769522 0.009123281854405956 
0.015625 0.4375 -0.0006752527503963363 0.021206062546979713 0.008453177746178701 
0.015625 0.4453125 -0.0006736683037462663 0.021859387555549434 0.007756130103098628 
0.015625 0.453125 -0.0006713902926077618 0.02251096392271632 0.007032356197798472 
0.015625 0.4609375 -0.0006684402906812011 0.023160141888509695 0.006282118052647893 
0.015625 0.46875 -0.0006648443694471063 0.02380629432323947 0.005505721148293517 
0.015625 0.4765625 -0.0006606333748028416 0.02444882110139983 0.004703512803624259 
0.015625 0.484375 -0.0006558432138033131 0.025087153743815732 0.0038758802108814026 
0.015625 0.4921875 -0.0006505151542013432 0.025720760339060768 0.003023248109484618 
0.015625 0.5 -0.0006446961401060183 0.02634915075789355 0.00214607608170298 
0.015625 0.5078125 -0.0006384391277892796 0.026971882177769833 0.0012448554524781001 
0.015625 0.515625 -0.000631803446483042 0.027588564938469756 0.000320105774402954 
0.015625 0.5234375 -0.0006248551899335302 0.028198868754624774 -0.0006276291230446784 
0.015625 0.53125 -0.00061766764553053 0.028802529316537602 -0.0015977855435616506 
0.015625 0.5390625 -0.0006103217690230668 0.029399355317273605 -0.002589784820473021 
0.015625 0.546875 -0.0006029067141888163 0.029989235951690132 -0.0036030387313363364 
0.015625 0.5546875 -0.0005955204283639437 0.030572148942002456 -0.004636955468440103 
0.015625 0.5625 -0.0005882703264886289 0.0311481691548212 -0.0056909462105295475 
0.015625 0.5703125 -0.0005812740583110714 0.031717477886515064 -0.006764432350605786 
0.015625 0.578125 -0.0005746603856536662 0.03228037290745782 -0.007856853446462541 
0.015625 0.5859375 -0.0005685701892203894 0.03283727937143828 -0.008967675975200356 
0.015625 0.59375 -0.0005631576273621862 0.03338876171450669 -0.010096402990832413 
0.015625 0.6015625 -0.0005585914725745723 0.03393553668809708 -0.011242584805915395 
0.015625 0.609375 -0.0005550566553473699 0.034478487694739886 -0.012405830844677702 
0.015625 0.6171875 -0.0005527560494030506 0.035018680621450915 -0.01358582284730802 
0.015625 0.625 -0.0005519125374485127 0.03555738139639916 -0.014782329644033773 
0.015625 0.6328125 -0.0005527714024490177 0.036096075529234904 -0.015995223764720724 
0.015625 0.640625 -0.0005556030962667637 0.03663648993510911 -0.017224500206613244 
0.015625 0.6484375 -0.000560706445483557 0.037180617387648475 -0.01847029775152109 
0.015625 0.65625 -0.0005684123635928038 0.0377307439978184 -0.019732923306704724 
0.015625 0.6640625 -0.0005790881498153252 0.03828948017472832 -0.0210128798439435 
0.015625 0.671875 -0.0005931424679733754 0.03885979559224857 -0.022310898632527595 
0.015625 0.6796875 -0.0006110311146787649 0.03944505876333454 -0.023627976608839744 
0.015625 0.6875 -0.0006332637052529597 0.04004908191407476 -0.024965419903590053 
0.015625 0.6953125 -0.0006604114292246607 0.040676171954056047 -0.02632489476493753 
0.015625 0.703125 -0.0006931160561774905 0.04133118846165647 -0.027708487380925278 
0.015625 0.7109375 -0.0007321004088015816 0.042019609746149746 -0.0291187744296801 
0.015625 0.71875 -0.00077818056546834 0.0427476082179417 -0.030558906585876813 
0.015625 0.7265625 -0.0008322801125201324 0.043522136500220326 -0.032032707706761844 
0.015625 0.734375 -0.0008954468408602196 0.04435102595807698 -0.033544793036390255 
0.015625 0.7421875 -0.0009688723779708178 0.045243099615597734 -0.03510071053676811 
0.015625 0.75 -0.0010539153729120145 0.046208301791783216 -0.03670711042480832 
0.015625 0.7578125 -0.001152129018839144 0.047257847231188144 -0.03837194922566789 
0.015625 0.765625 -0.0012652939199383857 0.04840439305958061 -0.040104736229446054 
0.015625 0.7734375 -0.0013954576080889673 0.049662237591226406 -0.04191683227378464 
0.015625 0.78125 -0.0015449824180101754 0.05104755089531275 -0.04382181342831109 
0.015625 0.7890625 -0.0017166039790551756 0.052578643150385164 -0.045835915650474415 
0.015625 0.796875 -0.0019135033352642367 0.05427627824995272 -0.047978581131025044 
0.015625 0.8046875 -0.0021393967458145117 0.05616404196252788 -0.05027313330181559 
0.015625 0.8125 -0.0023986486650632833 0.058268776312075464 -0.05274761599074851 
0.015625 0.8203125 -0.0026964154280202488 0.06062109487209497 -0.055435843932580275 
0.015625 0.828125 -0.0030388300255756342 0.06325599752081132 -0.05837872819216977 
0.015625 0.8359375 -0.0034332424139998812 0.06621360805014609 -0.06162596314460856 
0.015625 0.84375 -0.003888535609461511 0.06954006397149465 -0.06523819469464891 
0.015625 0.8515625 -0.004415546172305544 0.07328859486016817 -0.06928983733913811 
0.015625 0.859375 -0.00502762976197398 0.07752083312891266 -0.07387277816191348 
0.015625 0.8671875 -0.005741429932099244 0.08230840768531272 -0.07910131101831987 
0.015625 0.875 -0.006577933566112911 0.08773487265107188 -0.08511880337402884 
0.015625 0.8828125 -0.0075639322038558825 0.09389801121569141 -0.0921068427785949 
0.015625 0.890625 -0.008734057439675445 0.10091250846628319 -0.10029799068141476 
0.015625 0.8984375 -0.010133618711987296 0.10891286128410237 -0.10999387120738449 
0.015625 0.90625 -0.011822523671506713 0.11805608637799095 -0.12159127523951468 
0.015625 0.9140625 -0.01388052547495398 0.1285230692162776 -0.1356204725065289 
0.015625 0.921875 -0.016413646483563527 0.140515741314895 -0.15280228279965705 
0.015625 0.9296875 -0.019560002677365185 0.15424346811579098 -0.17413393187842097 
0.015625 0.9375 -0.023487666740453494 0.16988326666464812 -0.20101804489904213 
0.015625 0.9453125 -0.028359193870473 0.18747831524537728 -0.235451499453044 
0.015625 0.953125 -0.034181002890509335 0.20669345236359912 -0.280278926572537 
0.015625 0.9609375 -0.040282769478432484 0.22624666527279536 -0.3394449086556684 
0.015625 0.96875 -0.04365888921624819 0.24264163618749207 -0.4179037528805043 
0.015625 0.9765625 -0.03399562277227523 0.24757065074179102 -0.5199231795134658 
0.015625 0.984375 0.01992038433368325 0.22369064466395966 -0.6416765956075348 
0.015625 0.9921875 0.20020363972370891 0.14326601223321617 -0.7455795244484867 
0.015625 1.0 0.6683202737909435 0.0 -0.7850259559745281 
0.0234375 0.0 0.0 0.0 0.015315921680672868 
0.0234375 0.0078125 3.883271940692074e-05 -1.2156925680533572e-05 0.015311861249993373 
0.0234375 0.015625 5.4863910591123696e-05 -3.338276283325597e-05 0.01531370753873144 
0.0234375 0.0234375 5.2274202651695265e-05 -5.328696361538622e-05 0.015334548354778233 
0.0234375 0.03125 3.5430880442551694e-05 -6.421511975691847e-05 0.015372731650428056 
0.0234375 0.0390625 8.172567872156175e-06 -6.0264510583707114e-05 0.01542674155138902 
0.0234375 0.046875 -2.6447364562375865e-05 -3.6934910731365996e-05 0.015494869795881626 
0.0234375 0.0546875 -6.61281404205526e-05 9.125308447402482e-06 0.015575247712108992 
0.0234375 0.0625 -0.0001091846376480499 8.034487137336082e-05 0.015665931423491708 
0.0234375 0.0703125 -0.00015440016086516953 0.00017842817671899128 0.015764976982787428 
0.0234375 0.078125 -0.00020090225964204323 0.0003045216207507871 0.015870491304644387 
0.0234375 0.0859375 -0.00024806745375641805 0.0004593473188092527 0.01598066135875922 
0.0234375 0.09375 -0.0002954511538786168 0.0006433076535453075 0.016093767726351845 
0.0234375 0.1015625 -0.00034273703564761097 0.0008565655460963545 0.01620818806537069 
0.0234375 0.109375 -0.00038970068166870926 0.0010991053613401839 0.01632239456175756 
0.0234375 0.1171875 -0.00043618346268590547 0.0013707787375199913 0.01643494810205079 
0.0234375 0.125 -0.0004820737134756458 0.0016713388410977566 0.01654449090855665 
0.0234375 0.1328125 -0.0005272931068491211 0.0020004658013808175 0.01664973870285637 
0.0234375 0.140625 -0.0005717867467962801 0.0023577854499334185 0.016749473024226528 
0.0234375 0.1484375 -0.0006155159383284902 0.0027428829873535664 0.016842534051490284 
0.0234375 0.15625 -0.0006584528965600496 0.003155312810500744 0.016927814104270925 
0.0234375 0.1640625 -0.0007005768702558095 0.0035946054359436755 0.01700425189468396 
0.0234375 0.171875 -0.0007418713038856396 0.004060272230209948 0.017070827538325964 
0.0234375 0.1796875 -0.0007823217669764996 0.004551808487440653 0.01712655829801138 
0.0234375 0.1875 -0.0008219144538268849 0.005068695266855511 0.017170495014889486 
0.0234375 0.1953125 -0.0008606351097222387 0.005610400305689324 0.017201719172888447 